 Gaussian 16, Revision C.01,
 Gaussian 16:  ES64L-G16RevC.01  3-Jul-2019

 -------------------------------------
 #p wB97XD/Def2SVP SP pop=full gfinput
 -------------------------------------

 ---
 N 1
 ---
 Symbolic Z-matrix:
 Charge =  0 Multiplicity = 4

                         Standard orientation:
 ---------------------------------------------------------------------
 Center     Atomic      Atomic             Coordinates (Angstroms)
 Number     Number       Type             X           Y           Z
 ---------------------------------------------------------------------
      1          7           0        0.000000    0.000000    0.000000
 ---------------------------------------------------------------------

 SCF Done:  E(UwB97XD) =  -54.5224226421     A.U. after    9 cycles

 The electronic state is 4-A1G.
 Alpha  occ. eigenvalues --  -14.54605  -0.89290  -0.43993  -0.43993  -0.43993
 Alpha virt. eigenvalues --    0.59781   0.75662   0.75662   0.75662   2.12379
 Alpha virt. eigenvalues --    2.12379   2.12379   2.12379   2.12379
  Beta  occ. eigenvalues --  -14.49224  -0.67113
  Beta virt. eigenvalues --    0.00371   0.00371   0.00371   0.68209   0.88538
  Beta virt. eigenvalues --    0.88538   0.88538   2.30683   2.30683   2.30683
  Beta virt. eigenvalues --    2.30683   2.30683

 Mulliken charges and spin densities:
               1          2
     1  N    0.000000   3.000000
 Sum of Mulliken charges =   0.00000   3.00000

 Dipole moment (field-independent basis, Debye):
    X=              0.0000    Y=              0.0000    Z=              0.0000  Tot=              0.0000
 Quadrupole moment (field-independent basis, Debye-Ang):
   XX=             -5.3279   YY=             -5.3279   ZZ=             -5.3279
   XY=              0.0000   XZ=              0.0000   YZ=             -0.0000

 Normal termination of Gaussian 16 at Mon Feb 17 19:43:53 2025.
