 Gaussian 16, Revision C.01,
 Gaussian 16:  ES64L-G16RevC.01  3-Jul-2019

 -------------------------------------------
 #p wB97XD/Def2SVP opt freq pop=full gfinput
 -------------------------------------------

 ---------------------
 re-optimize from gaff
 ---------------------
 Symbolic Z-matrix:
 Charge =  1 Multiplicity = 2

 SCF Done:  E(UwB97XD) =  -552.364171727     A.U. after   26 cycles
 SCF Done:  E(UwB97XD) =  -552.368216134     A.U. after   24 cycles
 SCF Done:  E(UwB97XD) =  -552.368689516     A.U. after   40 cycles
 SCF Done:  E(UwB97XD) =  -552.373093531     A.U. after   40 cycles
 SCF Done:  E(UwB97XD) =  -552.341775906     A.U. after   24 cycles
 SCF Done:  E(UwB97XD) =  -552.374346080     A.U. after   19 cycles
 SCF Done:  E(UwB97XD) =  -552.379310164     A.U. after   25 cycles
 SCF Done:  E(UwB97XD) =  -552.381151590     A.U. after   24 cycles
 SCF Done:  E(UwB97XD) =  -552.387338146     A.U. after   23 cycles
 SCF Done:  E(UwB97XD) =  -552.359573789     A.U. after   22 cycles
 SCF Done:  E(UwB97XD) =  -552.387568424     A.U. after   23 cycles
 SCF Done:  E(UwB97XD) =  -552.387140292     A.U. after   21 cycles
 SCF Done:  E(UwB97XD) =  -552.388438024     A.U. after   22 cycles
 SCF Done:  E(UwB97XD) =  -552.388466843     A.U. after   14 cycles
 SCF Done:  E(UwB97XD) =  -552.388464200     A.U. after   16 cycles
 SCF Done:  E(UwB97XD) =  -552.388475201     A.U. after   15 cycles
 SCF Done:  E(UwB97XD) =  -552.388483660     A.U. after   14 cycles
 Optimization completed.
    -- Stationary point found.
 Normal termination of Gaussian 16 at Thu Feb 13 13:31:18 2025.

 --------------------------------------------------------------------
 #P Geom=AllCheck Guess=TCheck SCRF=Check GenChk UwB97XD/def2SVP Freq
 --------------------------------------------------------------------

 Structure from the checkpoint file:  "mol_0120.chk"
 ---------------------
 re-optimize from gaff
 ---------------------
 Charge =  1 Multiplicity = 2

                         Standard orientation:
 ---------------------------------------------------------------------
 Center     Atomic      Atomic             Coordinates (Angstroms)
 Number     Number       Type             X           Y           Z
 ---------------------------------------------------------------------
      1         16           0       -1.221418    0.000048    0.000000
      2          6           0       -0.006724   -1.215423   -0.000001
      3          6           0        1.315250   -0.688219    0.000001
      4          6           0        1.315111    0.688401   -0.000001
      5          6           0       -0.006840    1.215097    0.000000
      6          1           0       -0.281855   -2.274212   -0.000000
      7          1           0        2.202828   -1.322507    0.000001
      8          1           0        2.202520    1.322811   -0.000001
      9          1           0       -0.281594    2.274011    0.000000
 ---------------------------------------------------------------------

 SCF Done:  E(UwB97XD) =  -552.388483660     A.U. after    1 cycles

 The electronic state is 2-A.
 Alpha  occ. eigenvalues --  -89.28366 -10.60281 -10.60275 -10.55215 -10.55167
 Alpha  occ. eigenvalues --   -8.33650  -6.28969  -6.28560  -6.28251  -1.23651
 Alpha  occ. eigenvalues --   -1.08196  -1.06620  -0.89902  -0.88137  -0.84030
 Alpha  occ. eigenvalues --   -0.73155  -0.72735  -0.72255  -0.70788  -0.67094
 Alpha  occ. eigenvalues --   -0.58387  -0.57027
 Alpha virt. eigenvalues --   -0.21316  -0.11216  -0.10987  -0.03926  -0.02799
 Alpha virt. eigenvalues --    0.01072   0.03386   0.04466   0.09289   0.18229
 Alpha virt. eigenvalues --    0.19677   0.24537   0.26641   0.27260   0.28750

  Beta  occ. eigenvalues --  -89.28436 -10.59641 -10.59637 -10.55173 -10.55123
  Beta  occ. eigenvalues --   -8.33720  -6.29050  -6.28636  -6.28422  -1.22439
  Beta  occ. eigenvalues --   -1.08038  -1.04015  -0.88765  -0.87338  -0.83702
  Beta  occ. eigenvalues --   -0.72420  -0.71927  -0.70324  -0.68669  -0.66918
  Beta  occ. eigenvalues --   -0.57199
  Beta virt. eigenvalues --   -0.32597  -0.16521  -0.10459  -0.08468  -0.03385
  Beta virt. eigenvalues --   -0.02502   0.01408   0.03798   0.04631   0.09997
  Beta virt. eigenvalues --    0.18365   0.19831   0.25226   0.26598   0.27427

 Mulliken charges and spin densities:
               1          2
     1  S    0.294591  -0.123764
     2  C   -0.000329   0.553849
     3  C    0.040316   0.034005
     4  C    0.040317   0.034255
     5  C   -0.000314   0.553212
     6  H    0.176210  -0.022409
     7  H    0.136535  -0.003374
     8  H    0.136481  -0.003382
     9  H    0.176194  -0.022391
 Sum of Mulliken charges =   1.00000   1.00000

 Dipole moment (field-independent basis, Debye):
    X=              1.4095    Y=             -0.0005    Z=              0.0000  Tot=              1.4095
 Quadrupole moment (field-independent basis, Debye-Ang):
   XX=            -25.2350   YY=            -20.4422   ZZ=            -35.6470
   XY=              0.0013   XZ=             -0.0000   YZ=              0.0000

  Exact polarizability:      60.020      -0.001      61.657       0.000      -0.000      24.447
 Approx polarizability:      74.110       0.001      76.131       0.000      -0.000      31.230

                      1                      2                      3
                      A                      A                      A
 Frequencies --    373.8399               473.0807               540.7537
 Red. masses --      2.8517                 2.3784                 8.6991
 Frc consts  --      0.2348                 0.3136                 1.4987
 IR Inten    --      3.6380                 0.0000                12.2230

                      4                      5                      6
                      A                      A                      A
 Frequencies --    625.9250               724.3686               829.4340
 Red. masses --      9.5515                 1.1592                 1.3774
 Frc consts  --      2.2048                 0.3584                 0.5583
 IR Inten    --      1.4930                86.3678                 0.0002

                      7                      8                      9
                      A                      A                      A
 Frequencies --    847.6361               875.4438               893.0136
 Red. masses --      4.9303                 3.7012                 1.4138
 Frc consts  --      2.0871                 1.6713                 0.6643
 IR Inten    --      9.6217                32.8636                 1.3178

                     10                     11                     12
                      A                      A                      A
 Frequencies --    995.1101              1015.0915              1077.3534
 Red. masses --      1.4032                 1.5950                 1.6572
 Frc consts  --      0.8187                 0.9683                 1.1333
 IR Inten    --      0.0000                15.0306                17.1009

                     13                     14                     15
                      A                      A                      A
 Frequencies --   1126.0217              1252.6636              1372.7233
 Red. masses --      1.1862                 1.4096                 2.5940
 Frc consts  --      0.8861                 1.3032                 2.8800
 IR Inten    --      0.1325                 4.7945                 4.2475

                     16                     17                     18
                      A                      A                      A
 Frequencies --   1378.6571              1559.0976              3239.2845
 Red. masses --      1.8679                 4.8718                 1.0906
 Frc consts  --      2.0917                 6.9773                 6.7423
 IR Inten    --    113.5172                42.8428                38.9611

                     19                     20                     21
                      A                      A                      A
 Frequencies --   3244.3329              3253.9858              3266.1738
 Red. masses --      1.0967                 1.0954                 1.1077
 Frc consts  --      6.8014                 6.8339                 6.9625
 IR Inten    --     12.2638                41.6214                28.4551

 - Thermochemistry -
 -------------------
 Temperature   298.150 Kelvin.  Pressure   1.00000 Atm.
 Atom     1 has atomic number 16 and mass  31.97207

 Molecular mass:    84.00337 amu.
 Principal axes and moments of inertia in atomic units:
                           1         2         3
     Eigenvalues --   216.99711 353.46885 570.46597
           X            1.00000   0.00002   0.00000
           Y           -0.00002   1.00000  -0.00000
           Z           -0.00000   0.00000   1.00000
 This molecule is an asymmetric top.
 Rotational symmetry number  1.
 Rotational temperatures (Kelvin)      0.39915     0.24504     0.15183
 Rotational constants (GHZ):           8.31689     5.10580     3.16363
 Zero-point vibrational energy     173243.1 (Joules/Mol)
                                   41.40610 (Kcal/Mol)
 Warning -- explicit consideration of   3 degrees of freedom as
           vibrations may cause significant error
 Vibrational temperatures:    537.87   680.66   778.02   900.57  1042.20
          (Kelvin)           1193.37  1219.56  1259.57  1284.85  1431.74
                             1460.49  1550.07  1620.09  1802.30  1975.04
                             1983.58  2243.19  4660.61  4667.87  4681.76
                             4699.30

 Zero-point correction=                           0.065985 (Hartree/Particle)
 Thermal correction to Energy=                    0.070250
 Thermal correction to Enthalpy=                  0.071194
 Thermal correction to Gibbs Free Energy=         0.037960
 Sum of electronic and zero-point Energies=           -552.322499
 Sum of electronic and thermal Energies=              -552.318234
 Sum of electronic and thermal Enthalpies=            -552.317290
 Sum of electronic and thermal Free Energies=         -552.350524

                     E (Thermal)             CV                S
                      KCal/Mol        Cal/Mol-Kelvin    Cal/Mol-Kelvin
 Total                   44.082             15.707             69.947
 Electronic               0.000              0.000              1.377
 Translational            0.889              2.981             39.198
 Rotational               0.889              2.981             25.284
 Vibrational             42.305              9.745              4.086
 Vibration     1          0.745              1.526              1.064
 Vibration     2          0.830              1.310              0.729
 Vibration     3          0.896              1.160              0.564

 Optimization completed.
    -- Stationary point found.
 Normal termination of Gaussian 16 at Thu Feb 13 13:33:26 2025.
