 Gaussian 16, Revision C.01,
 Gaussian 16:  ES64L-G16RevC.01  3-Jul-2019

 -------------------------------------
 #p wB97XD/Def2SVP SP pop=full gfinput
 -------------------------------------

 ---
 S 1
 ---
 Symbolic Z-matrix:
 Charge =  0 Multiplicity = 3

                         Standard orientation:
 ---------------------------------------------------------------------
 Center     Atomic      Atomic             Coordinates (Angstroms)
 Number     Number       Type             X           Y           Z
 ---------------------------------------------------------------------
      1         16           0        0.000000    0.000000    0.000000
 ---------------------------------------------------------------------

 SCF Done:  E(UwB97XD) =  -397.971922152     A.U. after   12 cycles

 Unable to determine electronic state:  an orbital has unidentified symmetry.
 Alpha  occ. eigenvalues --  -89.05465  -8.10412  -6.06365  -6.06365  -6.04410
 Alpha  occ. eigenvalues --   -0.81042  -0.40643  -0.40643  -0.35834
 Alpha virt. eigenvalues --    0.39394   0.67628   0.67628   0.71573   0.71573
 Alpha virt. eigenvalues --    0.73087   0.74002   0.74002   0.77351
  Beta  occ. eigenvalues --  -89.04422  -8.09363  -6.04254  -6.04254  -6.03687
  Beta  occ. eigenvalues --   -0.70697  -0.33045
  Beta virt. eigenvalues --   -0.08992  -0.08992   0.41432   0.77945   0.77945
  Beta virt. eigenvalues --    0.78266   0.78834   0.78870   0.78870   0.79345
  Beta virt. eigenvalues --    0.79345

 Mulliken charges and spin densities:
               1          2
     1  S   -0.000000   2.000000
 Sum of Mulliken charges =  -0.00000   2.00000

 Dipole moment (field-independent basis, Debye):
    X=              0.0000    Y=              0.0000    Z=              0.0000  Tot=              0.0000
 Quadrupole moment (field-independent basis, Debye-Ang):
   XX=            -11.6762   YY=            -14.3170   ZZ=            -11.6762
   XY=              0.0000   XZ=             -0.0000   YZ=             -0.0000

 Normal termination of Gaussian 16 at Mon Feb 17 19:41:44 2025.
