 Gaussian 16, Revision C.01,
 Gaussian 16:  ES64L-G16RevC.01  3-Jul-2019

 -------------------------------------
 #p wB97XD/Def2SVP SP pop=full gfinput
 -------------------------------------

 ---
 C 1
 ---
 Symbolic Z-matrix:
 Charge =  0 Multiplicity = 3

                         Standard orientation:
 ---------------------------------------------------------------------
 Center     Atomic      Atomic             Coordinates (Angstroms)
 Number     Number       Type             X           Y           Z
 ---------------------------------------------------------------------
      1          6           0        0.000000    0.000000    0.000000
 ---------------------------------------------------------------------

 SCF Done:  E(UwB97XD) =  -37.7981047871     A.U. after   10 cycles

 Unable to determine electronic state:  partially filled degenerate orbitals.
 Alpha  occ. eigenvalues --  -10.41746  -0.67035  -0.34959  -0.34959
 Alpha virt. eigenvalues --   -0.06645   0.42356   0.54439   0.54439   0.57431
 Alpha virt. eigenvalues --    1.70328   1.70328   1.71369   1.71369   1.73575
  Beta  occ. eigenvalues --  -10.39007  -0.54417
  Beta virt. eigenvalues --   -0.02531   0.01550   0.01550   0.46514   0.61034
  Beta virt. eigenvalues --    0.63452   0.63452   1.79382   1.80664   1.80664
  Beta virt. eigenvalues --    1.85370   1.85370

 Mulliken charges and spin densities:
               1          2
     1  C   -0.000000   2.000000
 Sum of Mulliken charges =  -0.00000   2.00000

 Dipole moment (field-independent basis, Debye):
    X=              0.0000    Y=              0.0000    Z=              0.0000  Tot=              0.0000
 Quadrupole moment (field-independent basis, Debye-Ang):
   XX=             -4.8299   YY=             -6.7120   ZZ=             -6.7120
   XY=              0.0000   XZ=             -0.0000   YZ=             -0.0000

 Normal termination of Gaussian 16 at Mon Feb 17 19:45:17 2025.
