 Gaussian 16, Revision C.01,
 Gaussian 16:  ES64L-G16RevC.01  3-Jul-2019

 -------------------------------------
 #p wB97XD/Def2SVP SP pop=full gfinput
 -------------------------------------

 ---
 O 1
 ---
 Symbolic Z-matrix:
 Charge =  0 Multiplicity = 3

                         Standard orientation:
 ---------------------------------------------------------------------
 Center     Atomic      Atomic             Coordinates (Angstroms)
 Number     Number       Type             X           Y           Z
 ---------------------------------------------------------------------
      1          8           0        0.000000    0.000000    0.000000
 ---------------------------------------------------------------------

 SCF Done:  E(UwB97XD) =  -74.9766636595     A.U. after   11 cycles

 Unable to determine electronic state:  an orbital has unidentified symmetry.
 Alpha  occ. eigenvalues --  -19.38615  -1.08967  -0.53698  -0.53698  -0.46272
 Alpha virt. eigenvalues --    0.82657   0.92153   0.92153   0.96178   2.55152
 Alpha virt. eigenvalues --    2.55152   2.60941   2.60941   2.63068
  Beta  occ. eigenvalues --  -19.34070  -0.91875  -0.40468
  Beta virt. eigenvalues --   -0.06801  -0.06801   0.89524   0.99262   1.04356
  Beta virt. eigenvalues --    1.04356   2.71194   2.71194   2.71579   2.73540
  Beta virt. eigenvalues --    2.73540

 Mulliken charges and spin densities:
               1          2
     1  O   -0.000000   2.000000
 Sum of Mulliken charges =  -0.00000   2.00000

 Dipole moment (field-independent basis, Debye):
    X=              0.0000    Y=              0.0000    Z=              0.0000  Tot=              0.0000
 Quadrupole moment (field-independent basis, Debye-Ang):
   XX=             -5.6285   YY=             -4.5159   ZZ=             -4.5159
   XY=             -0.0000   XZ=              0.0000   YZ=             -0.0000

 Normal termination of Gaussian 16 at Mon Feb 17 19:42:23 2025.
